ITEM: TIMESTEP
1248
ITEM: NUMBER OF ATOMS
400
ITEM: BOX BOUNDS pp pp pp
0.0000000000000000e+00 2.4609999999999999e+01
0.0000000000000000e+00 4.0704612348990906e+01
3.6777246913791328e-01 4.0336839879852960e+01
ITEM: ATOMS id type xs ys zs
23 1 0.075 0.449297 0.34153
24 1 0.025 0.433558 0.347682
64 1 0.125 0.433558 0.347682
63 1 0.175 0.449297 0.34153
103 1 0.275 0.449297 0.34153
104 1 0.225 0.433558 0.347682
143 1 0.375 0.449297 0.34153
144 1 0.325 0.433558 0.347682
184 1 0.425 0.433558 0.347682
183 1 0.475 0.449297 0.34153
224 1 0.525 0.433558 0.347682
223 1 0.575 0.449297 0.34153
263 1 0.675 0.449297 0.34153
264 1 0.625 0.433558 0.347682
303 1 0.775 0.449297 0.34153
304 1 0.725 0.433558 0.347682
344 1 0.825 0.433558 0.347682
343 1 0.875 0.449297 0.34153
383 1 0.975 0.449297 0.34153
384 1 0.925 0.433558 0.347682
20 1 0.025 0.53416 0.337001
21 1 0.025 0.499864 0.333329
22 1 0.075 0.483029 0.334228
60 1 0.125 0.53416 0.337001
61 1 0.125 0.499864 0.333329
62 1 0.175 0.483029 0.334228
100 1 0.225 0.53416 0.337001
101 1 0.225 0.499864 0.333329
102 1 0.275 0.483029 0.334228
140 1 0.325 0.53416 0.337001
141 1 0.325 0.499864 0.333329
142 1 0.375 0.483029 0.334228
180 1 0.425 0.53416 0.337001
181 1 0.425 0.499864 0.333329
182 1 0.475 0.483029 0.334228
220 1 0.525 0.53416 0.337001
221 1 0.525 0.499864 0.333329
222 1 0.575 0.483029 0.334228
260 1 0.625 0.53416 0.337001
261 1 0.625 0.499864 0.333329
262 1 0.675 0.483029 0.334228
300 1 0.725 0.53416 0.337001
301 1 0.725 0.499864 0.333329
302 1 0.775 0.483029 0.334228
340 1 0.825 0.53416 0.337001
341 1 0.825 0.499864 0.333329
342 1 0.875 0.483029 0.334228
380 1 0.925 0.53416 0.337001
381 1 0.925 0.499864 0.333329
382 1 0.975 0.483029 0.334228
18 1 0.075 0.581948 0.355729
19 1 0.075 0.550444 0.341444
58 1 0.175 0.581948 0.355729
59 1 0.175 0.550444 0.341444
98 1 0.275 0.581948 0.355729
99 1 0.275 0.550444 0.341444
138 1 0.375 0.581948 0.355729
139 1 0.375 0.550444 0.341444
178 1 0.475 0.581948 0.355729
179 1 0.475 0.550444 0.341444
218 1 0.575 0.581948 0.355729
219 1 0.575 0.550444 0.341444
258 1 0.675 0.581948 0.355729
259 1 0.675 0.550444 0.341444
298 1 0.775 0.581948 0.355729
299 1 0.775 0.550444 0.341444
338 1 0.875 0.581948 0.355729
339 1 0.875 0.550444 0.341444
378 1 0.975 0.581948 0.355729
379 1 0.975 0.550444 0.341444
28 1 0.025 0.358335 0.416544
29 1 0.025 0.344308 0.448628
68 1 0.125 0.358335 0.416544
69 1 0.125 0.344308 0.448628
108 1 0.225 0.358335 0.416544
109 1 0.225 0.344308 0.448628
148 1 0.325 0.358335 0.416544
149 1 0.325 0.344308 0.448628
188 1 0.425 0.358335 0.416544
189 1 0.425 0.344308 0.448628
228 1 0.525 0.358335 0.416544
229 1 0.525 0.344308 0.448628
268 1 0.625 0.358335 0.416544
269 1 0.625 0.344308 0.448628
308 1 0.725 0.358335 0.416544
309 1 0.725 0.344308 0.448628
348 1 0.825 0.358335 0.416544
349 1 0.825 0.344308 0.448628
388 1 0.925 0.358335 0.416544
389 1 0.925 0.344308 0.448628
25 1 0.025 0.403693 0.365242
26 1 0.075 0.390592 0.376047
27 1 0.075 0.367517 0.402146
65 1 0.125 0.403693 0.365242
66 1 0.175 0.390592 0.376047
67 1 0.175 0.367517 0.402146
105 1 0.225 0.403693 0.365242
106 1 0.275 0.390592 0.376047
107 1 0.275 0.367517 0.402146
145 1 0.325 0.403693 0.365242
146 1 0.375 0.390592 0.376047
147 1 0.375 0.367517 0.402146
185 1 0.425 0.403693 0.365242
186 1 0.475 0.390592 0.376047
187 1 0.475 0.367517 0.402146
225 1 0.525 0.403693 0.365242
226 1 0.575 0.390592 0.376047
227 1 0.575 0.367517 0.402146
265 1 0.625 0.403693 0.365242
266 1 0.675 0.390592 0.376047
267 1 0.675 0.367517 0.402146
305 1 0.725 0.403693 0.365242
306 1 0.775 0.390592 0.376047
307 1 0.775 0.367517 0.402146
345 1 0.825 0.403693 0.365242
346 1 0.875 0.390592 0.376047
347 1 0.875 0.367517 0.402146
385 1 0.925 0.403693 0.365242
386 1 0.975 0.390592 0.376047
387 1 0.975 0.367517 0.402146
15 1 0.075 0.632323 0.401921
16 1 0.025 0.621714 0.388579
17 1 0.025 0.596086 0.365079
56 1 0.125 0.621714 0.388579
57 1 0.125 0.596086 0.365079
55 1 0.175 0.632323 0.401921
95 1 0.275 0.632323 0.401921
96 1 0.225 0.621714 0.388579
97 1 0.225 0.596086 0.365079
135 1 0.375 0.632323 0.401921
136 1 0.325 0.621714 0.388579
137 1 0.325 0.596086 0.365079
176 1 0.425 0.621714 0.388579
177 1 0.425 0.596086 0.365079
175 1 0.475 0.632323 0.401921
216 1 0.525 0.621714 0.388579
217 1 0.525 0.596086 0.365079
215 1 0.575 0.632323 0.401921
255 1 0.675 0.632323 0.401921
256 1 0.625 0.621714 0.388579
257 1 0.625 0.596086 0.365079
295 1 0.775 0.632323 0.401921
296 1 0.725 0.621714 0.388579
297 1 0.725 0.596086 0.365079
336 1 0.825 0.621714 0.388579
337 1 0.825 0.596086 0.365079
335 1 0.875 0.632323 0.401921
375 1 0.975 0.632323 0.401921
376 1 0.925 0.621714 0.388579
377 1 0.925 0.596086 0.365079
13 1 0.025 0.655607 0.448364
14 1 0.075 0.649566 0.432336
53 1 0.125 0.655607 0.448364
54 1 0.175 0.649566 0.432336
93 1 0.225 0.655607 0.448364
94 1 0.275 0.649566 0.432336
133 1 0.325 0.655607 0.448364
134 1 0.375 0.649566 0.432336
173 1 0.425 0.655607 0.448364
174 1 0.475 0.649566 0.432336
213 1 0.525 0.655607 0.448364
214 1 0.575 0.649566 0.432336
253 1 0.625 0.655607 0.448364
254 1 0.675 0.649566 0.432336
293 1 0.725 0.655607 0.448364
294 1 0.775 0.649566 0.432336
333 1 0.825 0.655607 0.448364
334 1 0.875 0.649566 0.432336
373 1 0.925 0.655607 0.448364
374 1 0.975 0.649566 0.432336
30 1 0.075 0.339945 0.465211
31 1 0.075 0.336341 0.500139
32 1 0.025 0.337223 0.517284
72 1 0.125 0.337223 0.517284
70 1 0.175 0.339945 0.465211
71 1 0.175 0.336341 0.500139
110 1 0.275 0.339945 0.465211
111 1 0.275 0.336341 0.500139
112 1 0.225 0.337223 0.517284
150 1 0.375 0.339945 0.465211
151 1 0.375 0.336341 0.500139
152 1 0.325 0.337223 0.517284
192 1 0.425 0.337223 0.517284
190 1 0.475 0.339945 0.465211
191 1 0.475 0.336341 0.500139
232 1 0.525 0.337223 0.517284
230 1 0.575 0.339945 0.465211
231 1 0.575 0.336341 0.500139
270 1 0.675 0.339945 0.465211
271 1 0.675 0.336341 0.500139
272 1 0.625 0.337223 0.517284
310 1 0.775 0.339945 0.465211
311 1 0.775 0.336341 0.500139
312 1 0.725 0.337223 0.517284
352 1 0.825 0.337223 0.517284
350 1 0.875 0.339945 0.465211
351 1 0.875 0.336341 0.500139
390 1 0.975 0.339945 0.465211
391 1 0.975 0.336341 0.500139
392 1 0.925 0.337223 0.517284
10 1 0.075 0.660055 0.534789
11 1 0.075 0.663659 0.499861
12 1 0.025 0.662777 0.482716
52 1 0.125 0.662777 0.482716
50 1 0.175 0.660055 0.534789
51 1 0.175 0.663659 0.499861
90 1 0.275 0.660055 0.534789
91 1 0.275 0.663659 0.499861
92 1 0.225 0.662777 0.482716
130 1 0.375 0.660055 0.534789
131 1 0.375 0.663659 0.499861
132 1 0.325 0.662777 0.482716
172 1 0.425 0.662777 0.482716
170 1 0.475 0.660055 0.534789
171 1 0.475 0.663659 0.499861
212 1 0.525 0.662777 0.482716
210 1 0.575 0.660055 0.534789
211 1 0.575 0.663659 0.499861
250 1 0.675 0.660055 0.534789
251 1 0.675 0.663659 0.499861
252 1 0.625 0.662777 0.482716
290 1 0.775 0.660055 0.534789
291 1 0.775 0.663659 0.499861
292 1 0.725 0.662777 0.482716
332 1 0.825 0.662777 0.482716
330 1 0.875 0.660055 0.534789
331 1 0.875 0.663659 0.499861
370 1 0.975 0.660055 0.534789
371 1 0.975 0.663659 0.499861
372 1 0.925 0.662777 0.482716
33 1 0.025 0.344393 0.551636
34 1 0.075 0.350434 0.567664
73 1 0.125 0.344393 0.551636
74 1 0.175 0.350434 0.567664
113 1 0.225 0.344393 0.551636
114 1 0.275 0.350434 0.567664
153 1 0.325 0.344393 0.551636
154 1 0.375 0.350434 0.567664
193 1 0.425 0.344393 0.551636
194 1 0.475 0.350434 0.567664
233 1 0.525 0.344393 0.551636
234 1 0.575 0.350434 0.567664
273 1 0.625 0.344393 0.551636
274 1 0.675 0.350434 0.567664
313 1 0.725 0.344393 0.551636
314 1 0.775 0.350434 0.567664
353 1 0.825 0.344393 0.551636
354 1 0.875 0.350434 0.567664
393 1 0.925 0.344393 0.551636
394 1 0.975 0.350434 0.567664
35 1 0.075 0.367677 0.598079
36 1 0.025 0.378286 0.611421
37 1 0.025 0.403914 0.634921
76 1 0.125 0.378286 0.611421
77 1 0.125 0.403914 0.634921
75 1 0.175 0.367677 0.598079
115 1 0.275 0.367677 0.598079
116 1 0.225 0.378286 0.611421
117 1 0.225 0.403914 0.634921
155 1 0.375 0.367677 0.598079
156 1 0.325 0.378286 0.611421
157 1 0.325 0.403914 0.634921
196 1 0.425 0.378286 0.611421
197 1 0.425 0.403914 0.634921
195 1 0.475 0.367677 0.598079
236 1 0.525 0.378286 0.611421
237 1 0.525 0.403914 0.634921
235 1 0.575 0.367677 0.598079
275 1 0.675 0.367677 0.598079
276 1 0.625 0.378286 0.611421
277 1 0.625 0.403914 0.634921
315 1 0.775 0.367677 0.598079
316 1 0.725 0.378286 0.611421
317 1 0.725 0.403914 0.634921
356 1 0.825 0.378286 0.611421
357 1 0.825 0.403914 0.634921
355 1 0.875 0.367677 0.598079
395 1 0.975 0.367677 0.598079
396 1 0.925 0.378286 0.611421
397 1 0.925 0.403914 0.634921
5 1 0.025 0.596307 0.634758
6 1 0.075 0.609408 0.623953
7 1 0.075 0.632483 0.597854
45 1 0.125 0.596307 0.634758
46 1 0.175 0.609408 0.623953
47 1 0.175 0.632483 0.597854
85 1 0.225 0.596307 0.634758
86 1 0.275 0.609408 0.623953
87 1 0.275 0.632483 0.597854
125 1 0.325 0.596307 0.634758
126 1 0.375 0.609408 0.623953
127 1 0.375 0.632483 0.597854
165 1 0.425 0.596307 0.634758
166 1 0.475 0.609408 0.623953
167 1 0.475 0.632483 0.597854
205 1 0.525 0.596307 0.634758
206 1 0.575 0.609408 0.623953
207 1 0.575 0.632483 0.597854
245 1 0.625 0.596307 0.634758
246 1 0.675 0.609408 0.623953
247 1 0.675 0.632483 0.597854
285 1 0.725 0.596307 0.634758
286 1 0.775 0.609408 0.623953
287 1 0.775 0.632483 0.597854
325 1 0.825 0.596307 0.634758
326 1 0.875 0.609408 0.623953
327 1 0.875 0.632483 0.597854
365 1 0.925 0.596307 0.634758
366 1 0.975 0.609408 0.623953
367 1 0.975 0.632483 0.597854
8 1 0.025 0.641665 0.583456
9 1 0.025 0.655692 0.551372
48 1 0.125 0.641665 0.583456
49 1 0.125 0.655692 0.551372
88 1 0.225 0.641665 0.583456
89 1 0.225 0.655692 0.551372
128 1 0.325 0.641665 0.583456
129 1 0.325 0.655692 0.551372
168 1 0.425 0.641665 0.583456
169 1 0.425 0.655692 0.551372
208 1 0.525 0.641665 0.583456
209 1 0.525 0.655692 0.551372
248 1 0.625 0.641665 0.583456
249 1 0.625 0.655692 0.551372
288 1 0.725 0.641665 0.583456
289 1 0.725 0.655692 0.551372
328 1 0.825 0.641665 0.583456
329 1 0.825 0.655692 0.551372
368 1 0.925 0.641665 0.583456
369 1 0.925 0.655692 0.551372
38 1 0.075 0.418052 0.644271
39 1 0.075 0.449556 0.658556
78 1 0.175 0.418052 0.644271
79 1 0.175 0.449556 0.658556
118 1 0.275 0.418052 0.644271
119 1 0.275 0.449556 0.658556
158 1 0.375 0.418052 0.644271
159 1 0.375 0.449556 0.658556
198 1 0.475 0.418052 0.644271
199 1 0.475 0.449556 0.658556
238 1 0.575 0.418052 0.644271
239 1 0.575 0.449556 0.658556
278 1 0.675 0.418052 0.644271
279 1 0.675 0.449556 0.658556
318 1 0.775 0.418052 0.644271
319 1 0.775 0.449556 0.658556
358 1 0.875 0.418052 0.644271
359 1 0.875 0.449556 0.658556
398 1 0.975 0.418052 0.644271
399 1 0.975 0.449556 0.658556
1 1 0.025 0.500136 0.666671
2 1 0.075 0.516971 0.665772
40 1 0.025 0.46584 0.662999
41 1 0.125 0.500136 0.666671
80 1 0.125 0.46584 0.662999
42 1 0.175 0.516971 0.665772
81 1 0.225 0.500136 0.666671
82 1 0.275 0.516971 0.665772
120 1 0.225 0.46584 0.662999
121 1 0.325 0.500136 0.666671
122 1 0.375 0.516971 0.665772
160 1 0.325 0.46584 0.662999
161 1 0.425 0.500136 0.666671
200 1 0.425 0.46584 0.662999
162 1 0.475 0.516971 0.665772
201 1 0.525 0.500136 0.666671
240 1 0.525 0.46584 0.662999
202 1 0.575 0.516971 0.665772
241 1 0.625 0.500136 0.666671
242 1 0.675 0.516971 0.665772
280 1 0.625 0.46584 0.662999
281 1 0.725 0.500136 0.666671
282 1 0.775 0.516971 0.665772
320 1 0.725 0.46584 0.662999
321 1 0.825 0.500136 0.666671
360 1 0.825 0.46584 0.662999
322 1 0.875 0.516971 0.665772
361 1 0.925 0.500136 0.666671
362 1 0.975 0.516971 0.665772
400 1 0.925 0.46584 0.662999
3 1 0.075 0.550703 0.65847
4 1 0.025 0.566442 0.652318
44 1 0.125 0.566442 0.652318
43 1 0.175 0.550703 0.65847
83 1 0.275 0.550703 0.65847
84 1 0.225 0.566442 0.652318
123 1 0.375 0.550703 0.65847
124 1 0.325 0.566442 0.652318
164 1 0.425 0.566442 0.652318
163 1 0.475 0.550703 0.65847
204 1 0.525 0.566442 0.652318
203 1 0.575 0.550703 0.65847
243 1 0.675 0.550703 0.65847
244 1 0.625 0.566442 0.652318
283 1 0.775 0.550703 0.65847
284 1 0.725 0.566442 0.652318
324 1 0.825 0.566442 0.652318
323 1 0.875 0.550703 0.65847
363 1 0.975 0.550703 0.65847
364 1 0.925 0.566442 0.652318
