ITEM: TIMESTEP
0
ITEM: NUMBER OF ATOMS
16128
ITEM: BOX BOUNDS xy xz yz pp ff pp
5.7984747370215924e-02 1.0173341182100462e+02 0.0000000000000000e+00
1.0043252850925995e-01 1.0073300714153680e+02 0.0000000000000000e+00
0.0000000000000000e+00 3.5500000000000000e+01 0.0000000000000000e+00
ITEM: ATOMS id type xs ys zs
1 1 6.03632e-16 6.94431e-13 0
2 1 0.0119048 0.00694444 0
3 1 0.0119048 0.0208333 0
4 1 6.0138e-16 0.0277778 0
5 1 6.04792e-16 0.0416667 0
6 1 0.0119048 0.0486111 0
7 1 0.0119048 0.0625 0
8 1 6.03495e-16 0.0694444 0
9 1 5.9749e-16 0.0833333 0
10 1 0.0119048 0.0902778 0
11 1 0.0119048 0.104167 0
12 1 6.05543e-16 0.111111 0
13 1 0.0238095 6.94423e-13 0
14 1 0.0357143 0.00694444 0
15 1 0.0357143 0.0208333 0
16 1 0.0238095 0.0277778 0
17 1 0.0238095 0.0416667 0
18 1 0.0357143 0.0486111 0
19 1 0.0357143 0.0625 0
20 1 0.0238095 0.0694444 0
21 1 0.0238095 0.0833333 0
22 1 0.0357143 0.0902778 0
23 1 0.0357143 0.104167 0
24 1 0.0238095 0.111111 0
25 1 0.047619 6.94442e-13 0
26 1 0.0595238 0.00694444 0
27 1 0.0595238 0.0208333 0
28 1 0.047619 0.0277778 0
29 1 0.047619 0.0416667 0
30 1 0.0595238 0.0486111 0
31 1 0.0595238 0.0625 0
32 1 0.047619 0.0694444 0
33 1 0.047619 0.0833333 0
34 1 0.0595238 0.0902778 0
35 1 0.0595238 0.104167 0
36 1 0.047619 0.111111 0
505 1 6.03359e-16 0.125 0
506 1 0.0119048 0.131944 0
507 1 0.0119048 0.145833 0
508 1 6.08614e-16 0.152778 0
509 1 6.03495e-16 0.166667 0
510 1 0.0119048 0.173611 0
511 1 0.0119048 0.1875 0
512 1 6.35639e-16 0.194444 0
513 1 6.06976e-16 0.208333 0
514 1 0.0119048 0.215278 0
515 1 0.0119048 0.229167 0
516 1 6.30384e-16 0.236111 0
517 1 0.0238095 0.125 0
518 1 0.0357143 0.131944 0
519 1 0.0357143 0.145833 0
520 1 0.0238095 0.152778 0
521 1 0.0238095 0.166667 0
522 1 0.0357143 0.173611 0
523 1 0.0357143 0.1875 0
524 1 0.0238095 0.194444 0
525 1 0.0238095 0.208333 0
526 1 0.0357143 0.215278 0
527 1 0.0357143 0.229167 0
528 1 0.0238095 0.236111 0
529 1 0.047619 0.125 0
530 1 0.0595238 0.131944 0
531 1 0.0595238 0.145833 0
532 1 0.047619 0.152778 0
533 1 0.047619 0.166667 0
534 1 0.0595238 0.173611 0
535 1 0.0595238 0.1875 0
536 1 0.047619 0.194444 0
537 1 0.047619 0.208333 0
538 1 0.0595238 0.215278 0
539 1 0.0595238 0.229167 0
540 1 0.047619 0.236111 0
1009 1 6.07658e-16 0.25 0
1010 1 0.0119048 0.256944 0
1011 1 0.0119048 0.270833 0
1012 1 5.90665e-16 0.277778 0
1013 1 6.06157e-16 0.291667 0
1014 1 0.0119048 0.298611 0
1015 1 0.0119048 0.3125 0
1016 1 6.19192e-16 0.319444 0
1017 1 6.01721e-16 0.333333 0
1018 1 0.0119048 0.340278 0
1019 1 0.0119048 0.354167 0
1020 1 6.13664e-16 0.361111 0
1021 1 0.0238095 0.25 0
1022 1 0.0357143 0.256944 0
1023 1 0.0357143 0.270833 0
1024 1 0.0238095 0.277778 0
1025 1 0.0238095 0.291667 0
1026 1 0.0357143 0.298611 0
1027 1 0.0357143 0.3125 0
1028 1 0.0238095 0.319444 0
1029 1 0.0238095 0.333333 0
1030 1 0.0357143 0.340278 0
1031 1 0.0357143 0.354167 0
1032 1 0.0238095 0.361111 0
1033 1 0.047619 0.25 0
1034 1 0.0595238 0.256944 0
1035 1 0.0595238 0.270833 0
1036 1 0.047619 0.277778 0
1037 1 0.047619 0.291667 0
1038 1 0.0595238 0.298611 0
1039 1 0.0595238 0.3125 0
1040 1 0.047619 0.319444 0
1041 1 0.047619 0.333333 0
1042 1 0.0595238 0.340278 0
1043 1 0.0595238 0.354167 0
1044 1 0.047619 0.361111 0
1513 1 6.15506e-16 0.375 0
1514 1 0.0119048 0.381944 0
1515 1 0.0119048 0.395833 0
1516 1 6.31339e-16 0.402778 0
1517 1 5.94009e-16 0.416667 0
1518 1 0.0119048 0.423611 0
1519 1 0.0119048 0.4375 0
1520 1 5.89095e-16 0.444444 0
1521 1 6.2547e-16 0.458333 0
1522 1 0.0119048 0.465278 0
1523 1 0.0119048 0.479167 0
1524 1 5.96807e-16 0.486111 0
1525 1 0.0238095 0.375 0
1526 1 0.0357143 0.381944 0
1527 1 0.0357143 0.395833 0
1528 1 0.0238095 0.402778 0
1529 1 0.0238095 0.416667 0
1530 1 0.0357143 0.423611 0
1531 1 0.0357143 0.4375 0
1532 1 0.0238095 0.444444 0
1533 1 0.0238095 0.458333 0
1534 1 0.0357143 0.465278 0
1535 1 0.0357143 0.479167 0
1536 1 0.0238095 0.486111 0
1537 1 0.047619 0.375 0
1538 1 0.0595238 0.381944 0
1539 1 0.0595238 0.395833 0
1540 1 0.047619 0.402778 0
1541 1 0.047619 0.416667 0
1542 1 0.0595238 0.423611 0
1543 1 0.0595238 0.4375 0
1544 1 0.047619 0.444444 0
1545 1 0.047619 0.458333 0
1546 1 0.0595238 0.465278 0
1547 1 0.0595238 0.479167 0
1548 1 0.047619 0.486111 0
2017 1 5.92917e-16 0.5 0
2018 1 0.0119048 0.506944 0
2019 1 0.0119048 0.520833 0
2020 1 6.03564e-16 0.527778 0
2021 1 5.89573e-16 0.541667 0
2022 1 0.0119048 0.548611 0
2023 1 0.0119048 0.5625 0
2024 1 5.98991e-16 0.569444 0
2025 1 6.06225e-16 0.583333 0
2026 1 0.0119048 0.590278 0
2027 1 0.0119048 0.604167 0
2028 1 6.18714e-16 0.611111 0
2029 1 0.0238095 0.5 0
2030 1 0.0357143 0.506944 0
2031 1 0.0357143 0.520833 0
2032 1 0.0238095 0.527778 0
2033 1 0.0238095 0.541667 0
2034 1 0.0357143 0.548611 0
2035 1 0.0357143 0.5625 0
2036 1 0.0238095 0.569444 0
2037 1 0.0238095 0.583333 0
2038 1 0.0357143 0.590278 0
2039 1 0.0357143 0.604167 0
2040 1 0.0238095 0.611111 0
2041 1 0.047619 0.5 0
2042 1 0.0595238 0.506944 0
2043 1 0.0595238 0.520833 0
2044 1 0.047619 0.527778 0
2045 1 0.047619 0.541667 0
2046 1 0.0595238 0.548611 0
2047 1 0.0595238 0.5625 0
2048 1 0.047619 0.569444 0
2049 1 0.047619 0.583333 0
2050 1 0.0595238 0.590278 0
2051 1 0.0595238 0.604167 0
2052 1 0.047619 0.611111 0
2521 1 6.2977e-16 0.625 0
2522 1 0.0119048 0.631944 0
2523 1 0.0119048 0.645833 0
2524 1 6.01311e-16 0.652778 0
2525 1 6.04587e-16 0.666667 0
2526 1 0.0119048 0.673611 0
2527 1 0.0119048 0.6875 0
2528 1 6.00902e-16 0.694444 0
2529 1 5.95511e-16 0.708333 0
2530 1 0.0119048 0.715278 0
2531 1 0.0119048 0.729167 0
2532 1 6.12026e-16 0.736111 0
2533 1 0.0238095 0.625 0
2534 1 0.0357143 0.631944 0
2535 1 0.0357143 0.645833 0
2536 1 0.0238095 0.652778 0
2537 1 0.0238095 0.666667 0
2538 1 0.0357143 0.673611 0
2539 1 0.0357143 0.6875 0
2540 1 0.0238095 0.694444 0
2541 1 0.0238095 0.708333 0
2542 1 0.0357143 0.715278 0
2543 1 0.0357143 0.729167 0
2544 1 0.0238095 0.736111 0
2545 1 0.047619 0.625 0
2546 1 0.0595238 0.631944 0
2547 1 0.0595238 0.645833 0
2548 1 0.047619 0.652778 0
2549 1 0.047619 0.666667 0
2550 1 0.0595238 0.673611 0
2551 1 0.0595238 0.6875 0
2552 1 0.047619 0.694444 0
2553 1 0.047619 0.708333 0
2554 1 0.0595238 0.715278 0
2555 1 0.0595238 0.729167 0
2556 1 0.047619 0.736111 0
3025 1 5.7763e-16 0.75 0
3026 1 0.0119048 0.756944 0
3027 1 0.0119048 0.770833 0
3028 1 6.27995e-16 0.777778 0
3029 1 5.87594e-16 0.791667 0
3030 1 0.0119048 0.798611 0
3031 1 0.0119048 0.8125 0
3032 1 6.04314e-16 0.819444 0
3033 1 5.96807e-16 0.833333 0
3034 1 0.0119048 0.840278 0
3035 1 0.0119048 0.854167 0
3036 1 5.98036e-16 0.861111 0
3037 1 0.0238095 0.75 0
3038 1 0.0357143 0.756944 0
3039 1 0.0357143 0.770833 0
3040 1 0.0238095 0.777778 0
3041 1 0.0238095 0.791667 0
3042 1 0.0357143 0.798611 0
3043 1 0.0357143 0.8125 0
3044 1 0.0238095 0.819444 0
3045 1 0.0238095 0.833333 0
3046 1 0.0357143 0.840278 0
3047 1 0.0357143 0.854167 0
3048 1 0.0238095 0.861111 0
3049 1 0.047619 0.75 0
3050 1 0.0595238 0.756944 0
3051 1 0.0595238 0.770833 0
3052 1 0.047619 0.777778 0
3053 1 0.047619 0.791667 0
3054 1 0.0595238 0.798611 0
3055 1 0.0595238 0.8125 0
3056 1 0.047619 0.819444 0
3057 1 0.047619 0.833333 0
3058 1 0.0595238 0.840278 0
3059 1 0.0595238 0.854167 0
3060 1 0.047619 0.861111 0
3529 1 6.01448e-16 0.875 0
3530 1 0.0119048 0.881944 0
3531 1 0.0119048 0.895833 0
3532 1 6.22263e-16 0.902778 0
3533 1 5.90051e-16 0.916667 0
3534 1 0.0119048 0.923611 0
3535 1 0.0119048 0.9375 0
3536 1 6.27859e-16 0.944444 0
3537 1 5.8425e-16 0.958333 0
3538 1 0.0119048 0.965278 0
3539 1 0.0119048 0.979167 0
3540 1 5.92985e-16 0.986111 0
3541 1 0.0238095 0.875 0
3542 1 0.0357143 0.881944 0
3543 1 0.0357143 0.895833 0
3544 1 0.0238095 0.902778 0
3545 1 0.0238095 0.916667 0
3546 1 0.0357143 0.923611 0
3547 1 0.0357143 0.9375 0
3548 1 0.0238095 0.944444 0
3549 1 0.0238095 0.958333 0
3550 1 0.0357143 0.965278 0
3551 1 0.0357143 0.979167 0
3552 1 0.0238095 0.986111 0
3553 1 0.047619 0.875 0
3554 1 0.0595238 0.881944 0
3555 1 0.0595238 0.895833 0
3556 1 0.047619 0.902778 0
3557 1 0.047619 0.916667 0
3558 1 0.0595238 0.923611 0
3559 1 0.0595238 0.9375 0
3560 1 0.047619 0.944444 0
3561 1 0.047619 0.958333 0
3562 1 0.0595238 0.965278 0
3563 1 0.0595238 0.979167 0
3564 1 0.047619 0.986111 0
37 1 0.0714286 6.94428e-13 0
38 1 0.0833333 0.00694444 0
39 1 0.0833333 0.0208333 0
40 1 0.0714286 0.0277778 0
41 1 0.0714286 0.0416667 0
42 1 0.0833333 0.0486111 0
43 1 0.0833333 0.0625 0
44 1 0.0714286 0.0694444 0
45 1 0.0714286 0.0833333 0
46 1 0.0833333 0.0902778 0
47 1 0.0833333 0.104167 0
48 1 0.0714286 0.111111 0
49 1 0.0952381 6.94426e-13 0
50 1 0.107143 0.00694444 0
51 1 0.107143 0.0208333 0
52 1 0.0952381 0.0277778 0
53 1 0.0952381 0.0416667 0
54 1 0.107143 0.0486111 0
55 1 0.107143 0.0625 0
56 1 0.0952381 0.0694444 0
57 1 0.0952381 0.0833333 0
58 1 0.107143 0.0902778 0
59 1 0.107143 0.104167 0
60 1 0.0952381 0.111111 0
61 1 0.119048 6.94424e-13 0
62 1 0.130952 0.00694444 0
63 1 0.130952 0.0208333 0
64 1 0.119048 0.0277778 0
65 1 0.119048 0.0416667 0
66 1 0.130952 0.0486111 0
67 1 0.130952 0.0625 0
68 1 0.119048 0.0694444 0
69 1 0.119048 0.0833333 0
70 1 0.130952 0.0902778 0
71 1 0.130952 0.104167 0
72 1 0.119048 0.111111 0
541 1 0.0714286 0.125 0
542 1 0.0833333 0.131944 0
543 1 0.0833333 0.145833 0
544 1 0.0714286 0.152778 0
545 1 0.0714286 0.166667 0
546 1 0.0833333 0.173611 0
547 1 0.0833333 0.1875 0
548 1 0.0714286 0.194444 0
549 1 0.0714286 0.208333 0
550 1 0.0833333 0.215278 0
551 1 0.0833333 0.229167 0
552 1 0.0714286 0.236111 0
553 1 0.0952381 0.125 0
554 1 0.107143 0.131944 0
555 1 0.107143 0.145833 0
556 1 0.0952381 0.152778 0
557 1 0.0952381 0.166667 0
558 1 0.107143 0.173611 0
559 1 0.107143 0.1875 0
560 1 0.0952381 0.194444 0
561 1 0.0952381 0.208333 0
562 1 0.107143 0.215278 0
563 1 0.107143 0.229167 0
564 1 0.0952381 0.236111 0
565 1 0.119048 0.125 0
566 1 0.130952 0.131944 0
567 1 0.130952 0.145833 0
568 1 0.119048 0.152778 0
569 1 0.119048 0.166667 0
570 1 0.130952 0.173611 0
571 1 0.130952 0.1875 0
572 1 0.119048 0.194444 0
573 1 0.119048 0.208333 0
574 1 0.130952 0.215278 0
575 1 0.130952 0.229167 0
576 1 0.119048 0.236111 0
1045 1 0.0714286 0.25 0
1046 1 0.0833333 0.256944 0
1047 1 0.0833333 0.270833 0
1048 1 0.0714286 0.277778 0
1049 1 0.0714286 0.291667 0
1050 1 0.0833333 0.298611 0
1051 1 0.0833333 0.3125 0
1052 1 0.0714286 0.319444 0
1053 1 0.0714286 0.333333 0
1054 1 0.0833333 0.340278 0
1055 1 0.0833333 0.354167 0
1056 1 0.0714286 0.361111 0
1057 1 0.0952381 0.25 0
1058 1 0.107143 0.256944 0
1059 1 0.107143 0.270833 0
1060 1 0.0952381 0.277778 0
1061 1 0.0952381 0.291667 0
1062 1 0.107143 0.298611 0
1063 1 0.107143 0.3125 0
1064 1 0.0952381 0.319444 0
1065 1 0.0952381 0.333333 0
1066 1 0.107143 0.340278 0
1067 1 0.107143 0.354167 0
1068 1 0.0952381 0.361111 0
1069 1 0.119048 0.25 0
1070 1 0.130952 0.256944 0
1071 1 0.130952 0.270833 0
1072 1 0.119048 0.277778 0
1073 1 0.119048 0.291667 0
1074 1 0.130952 0.298611 0
1075 1 0.130952 0.3125 0
1076 1 0.119048 0.319444 0
1077 1 0.119048 0.333333 0
1078 1 0.130952 0.340278 0
1079 1 0.130952 0.354167 0
1080 1 0.119048 0.361111 0
1549 1 0.0714286 0.375 0
1550 1 0.0833333 0.381944 0
1551 1 0.0833333 0.395833 0
1552 1 0.0714286 0.402778 0
1553 1 0.0714286 0.416667 0
1554 1 0.0833333 0.423611 0
1555 1 0.0833333 0.4375 0
1556 1 0.0714286 0.444444 0
1557 1 0.0714286 0.458333 0
1558 1 0.0833333 0.465278 0
1559 1 0.0833333 0.479167 0
1560 1 0.0714286 0.486111 0
1561 1 0.0952381 0.375 0
1562 1 0.107143 0.381944 0
1563 1 0.107143 0.395833 0
1564 1 0.0952381 0.402778 0
1565 1 0.0952381 0.416667 0
1566 1 0.107143 0.423611 0
1567 1 0.107143 0.4375 0
1568 1 0.0952381 0.444444 0
1569 1 0.0952381 0.458333 0
1570 1 0.107143 0.465278 0
1571 1 0.107143 0.479167 0
1572 1 0.0952381 0.486111 0
1573 1 0.119048 0.375 0
1574 1 0.130952 0.381944 0
1575 1 0.130952 0.395833 0
1576 1 0.119048 0.402778 0
1577 1 0.119048 0.416667 0
1578 1 0.130952 0.423611 0
1579 1 0.130952 0.4375 0
1580 1 0.119048 0.444444 0
1581 1 0.119048 0.458333 0
1582 1 0.130952 0.465278 0
1583 1 0.130952 0.479167 0
1584 1 0.119048 0.486111 0
2053 1 0.0714286 0.5 0
2054 1 0.0833333 0.506944 0
2055 1 0.0833333 0.520833 0
2056 1 0.0714286 0.527778 0
2057 1 0.0714286 0.541667 0
2058 1 0.0833333 0.548611 0
2059 1 0.0833333 0.5625 0
2060 1 0.0714286 0.569444 0
2061 1 0.0714286 0.583333 0
2062 1 0.0833333 0.590278 0
2063 1 0.0833333 0.604167 0
2064 1 0.0714286 0.611111 0
2065 1 0.0952381 0.5 0
2066 1 0.107143 0.506944 0
2067 1 0.107143 0.520833 0
2068 1 0.0952381 0.527778 0
2069 1 0.0952381 0.541667 0
2070 1 0.107143 0.548611 0
2071 1 0.107143 0.5625 0
2072 1 0.0952381 0.569444 0
2073 1 0.0952381 0.583333 0
2074 1 0.107143 0.590278 0
2075 1 0.107143 0.604167 0
2076 1 0.0952381 0.611111 0
2077 1 0.119048 0.5 0
2078 1 0.130952 0.506944 0
2079 1 0.130952 0.520833 0
2080 1 0.119048 0.527778 0
2081 1 0.119048 0.541667 0
2082 1 0.130952 0.548611 0
2083 1 0.130952 0.5625 0
2084 1 0.119048 0.569444 0
2085 1 0.119048 0.583333 0
2086 1 0.130952 0.590278 0
2087 1 0.130952 0.604167 0
2088 1 0.119048 0.611111 0
2557 1 0.0714286 0.625 0
2558 1 0.0833333 0.631944 0
2559 1 0.0833333 0.645833 0
2560 1 0.0714286 0.652778 0
2561 1 0.0714286 0.666667 0
2562 1 0.0833333 0.673611 0
2563 1 0.0833333 0.6875 0
2564 1 0.0714286 0.694444 0
2565 1 0.0714286 0.708333 0
2566 1 0.0833333 0.715278 0
2567 1 0.0833333 0.729167 0
2568 1 0.0714286 0.736111 0
2569 1 0.0952381 0.625 0
2570 1 0.107143 0.631944 0
2571 1 0.107143 0.645833 0
2572 1 0.0952381 0.652778 0
2573 1 0.0952381 0.666667 0
2574 1 0.107143 0.673611 0
2575 1 0.107143 0.6875 0
2576 1 0.0952381 0.694444 0
2577 1 0.0952381 0.708333 0
2578 1 0.107143 0.715278 0
2579 1 0.107143 0.729167 0
2580 1 0.0952381 0.736111 0
2581 1 0.119048 0.625 0
2582 1 0.130952 0.631944 0
2583 1 0.130952 0.645833 0
2584 1 0.119048 0.652778 0
2585 1 0.119048 0.666667 0
2586 1 0.130952 0.673611 0
2587 1 0.130952 0.6875 0
2588 1 0.119048 0.694444 0
2589 1 0.119048 0.708333 0
2590 1 0.130952 0.715278 0
2591 1 0.130952 0.729167 0
2592 1 0.119048 0.736111 0
3061 1 0.0714286 0.75 0
3062 1 0.0833333 0.756944 0
3063 1 0.0833333 0.770833 0
3064 1 0.0714286 0.777778 0
3065 1 0.0714286 0.791667 0
3066 1 0.0833333 0.798611 0
3067 1 0.0833333 0.8125 0
3068 1 0.0714286 0.819444 0
3069 1 0.0714286 0.833333 0
3070 1 0.0833333 0.840278 0
3071 1 0.0833333 0.854167 0
3072 1 0.0714286 0.861111 0
3073 1 0.0952381 0.75 0
3074 1 0.107143 0.756944 0
3075 1 0.107143 0.770833 0
3076 1 0.0952381 0.777778 0
3077 1 0.0952381 0.791667 0
3078 1 0.107143 0.798611 0
3079 1 0.107143 0.8125 0
3080 1 0.0952381 0.819444 0
3081 1 0.0952381 0.833333 0
3082 1 0.107143 0.840278 0
3083 1 0.107143 0.854167 0
3084 1 0.0952381 0.861111 0
3085 1 0.119048 0.75 0
3086 1 0.130952 0.756944 0
3087 1 0.130952 0.770833 0
3088 1 0.119048 0.777778 0
3089 1 0.119048 0.791667 0
3090 1 0.130952 0.798611 0
3091 1 0.130952 0.8125 0
3092 1 0.119048 0.819444 0
3093 1 0.119048 0.833333 0
3094 1 0.130952 0.840278 0
3095 1 0.130952 0.854167 0
3096 1 0.119048 0.861111 0
3565 1 0.0714286 0.875 0
3566 1 0.0833333 0.881944 0
3567 1 0.0833333 0.895833 0
3568 1 0.0714286 0.902778 0
3569 1 0.0714286 0.916667 0
3570 1 0.0833333 0.923611 0
3571 1 0.0833333 0.9375 0
3572 1 0.0714286 0.944444 0
3573 1 0.0714286 0.958333 0
3574 1 0.0833333 0.965278 0
3575 1 0.0833333 0.979167 0
3576 1 0.0714286 0.986111 0
3577 1 0.0952381 0.875 0
3578 1 0.107143 0.881944 0
3579 1 0.107143 0.895833 0
3580 1 0.0952381 0.902778 0
3581 1 0.0952381 0.916667 0
3582 1 0.107143 0.923611 0
3583 1 0.107143 0.9375 0
3584 1 0.0952381 0.944444 0
3585 1 0.0952381 0.958333 0
3586 1 0.107143 0.965278 0
3587 1 0.107143 0.979167 0
3588 1 0.0952381 0.986111 0
3589 1 0.119048 0.875 0
3590 1 0.130952 0.881944 0
3591 1 0.130952 0.895833 0
3592 1 0.119048 0.902778 0
3593 1 0.119048 0.916667 0
3594 1 0.130952 0.923611 0
3595 1 0.130952 0.9375 0
3596 1 0.119048 0.944444 0
3597 1 0.119048 0.958333 0
3598 1 0.130952 0.965278 0
3599 1 0.130952 0.979167 0
3600 1 0.119048 0.986111 0
73 1 0.142857 6.94445e-13 0
74 1 0.154762 0.00694444 0
75 1 0.154762 0.0208333 0
76 1 0.142857 0.0277778 0
77 1 0.142857 0.0416667 0
78 1 0.154762 0.0486111 0
79 1 0.154762 0.0625 0
80 1 0.142857 0.0694444 0
81 1 0.142857 0.0833333 0
82 1 0.154762 0.0902778 0
83 1 0.154762 0.104167 0
84 1 0.142857 0.111111 0
85 1 0.166667 6.94422e-13 0
86 1 0.178571 0.00694444 0
87 1 0.178571 0.0208333 0
88 1 0.166667 0.0277778 0
89 1 0.166667 0.0416667 0
90 1 0.178571 0.0486111 0
91 1 0.178571 0.0625 0
92 1 0.166667 0.0694444 0
93 1 0.166667 0.0833333 0
94 1 0.178571 0.0902778 0
95 1 0.178571 0.104167 0
96 1 0.166667 0.111111 0
97 1 0.190476 6.94439e-13 0
98 1 0.202381 0.00694444 0
99 1 0.202381 0.0208333 0
100 1 0.190476 0.0277778 0
101 1 0.190476 0.0416667 0
102 1 0.202381 0.0486111 0
103 1 0.202381 0.0625 0
104 1 0.190476 0.0694444 0
105 1 0.190476 0.0833333 0
106 1 0.202381 0.0902778 0
107 1 0.202381 0.104167 0
108 1 0.190476 0.111111 0
577 1 0.142857 0.125 0
578 1 0.154762 0.131944 0
579 1 0.154762 0.145833 0
580 1 0.142857 0.152778 0
581 1 0.142857 0.166667 0
582 1 0.154762 0.173611 0
583 1 0.154762 0.1875 0
584 1 0.142857 0.194444 0
585 1 0.142857 0.208333 0
586 1 0.154762 0.215278 0
587 1 0.154762 0.229167 0
588 1 0.142857 0.236111 0
589 1 0.166667 0.125 0
590 1 0.178571 0.131944 0
591 1 0.178571 0.145833 0
592 1 0.166667 0.152778 0
593 1 0.166667 0.166667 0
594 1 0.178571 0.173611 0
595 1 0.178571 0.1875 0
596 1 0.166667 0.194444 0
597 1 0.166667 0.208333 0
598 1 0.178571 0.215278 0
599 1 0.178571 0.229167 0
600 1 0.166667 0.236111 0
601 1 0.190476 0.125 0
602 1 0.202381 0.131944 0
603 1 0.202381 0.145833 0
604 1 0.190476 0.152778 0
605 1 0.190476 0.166667 0
606 1 0.202381 0.173611 0
607 1 0.202381 0.1875 0
608 1 0.190476 0.194444 0
609 1 0.190476 0.208333 0
610 1 0.202381 0.215278 0
611 1 0.202381 0.229167 0
612 1 0.190476 0.236111 0
1081 1 0.142857 0.25 0
1082 1 0.154762 0.256944 0
1083 1 0.154762 0.270833 0
1084 1 0.142857 0.277778 0
1085 1 0.142857 0.291667 0
1086 1 0.154762 0.298611 0
1087 1 0.154762 0.3125 0
1088 1 0.142857 0.319444 0
1089 1 0.142857 0.333333 0
1090 1 0.154762 0.340278 0
1091 1 0.154762 0.354167 0
1092 1 0.142857 0.361111 0
1093 1 0.166667 0.25 0
1094 1 0.178571 0.256944 0
1095 1 0.178571 0.270833 0
1096 1 0.166667 0.277778 0
1097 1 0.166667 0.291667 0
1098 1 0.178571 0.298611 0
1099 1 0.178571 0.3125 0
1100 1 0.166667 0.319444 0
1101 1 0.166667 0.333333 0
1102 1 0.178571 0.340278 0
1103 1 0.178571 0.354167 0
1104 1 0.166667 0.361111 0
1105 1 0.190476 0.25 0
1106 1 0.202381 0.256944 0
1107 1 0.202381 0.270833 0
1108 1 0.190476 0.277778 0
1109 1 0.190476 0.291667 0
1110 1 0.202381 0.298611 0
1111 1 0.202381 0.3125 0
1112 1 0.190476 0.319444 0
1113 1 0.190476 0.333333 0
1114 1 0.202381 0.340278 0
1115 1 0.202381 0.354167 0
1116 1 0.190476 0.361111 0
1585 1 0.142857 0.375 0
1586 1 0.154762 0.381944 0
1587 1 0.154762 0.395833 0
1588 1 0.142857 0.402778 0
1589 1 0.142857 0.416667 0
1590 1 0.154762 0.423611 0
1591 1 0.154762 0.4375 0
1592 1 0.142857 0.444444 0
1593 1 0.142857 0.458333 0
1594 1 0.154762 0.465278 0
1595 1 0.154762 0.479167 0
1596 1 0.142857 0.486111 0
1597 1 0.166667 0.375 0
1598 1 0.178571 0.381944 0
1599 1 0.178571 0.395833 0
1600 1 0.166667 0.402778 0
1601 1 0.166667 0.416667 0
1602 1 0.178571 0.423611 0
1603 1 0.178571 0.4375 0
1604 1 0.166667 0.444444 0
1605 1 0.166667 0.458333 0
1606 1 0.178571 0.465278 0
1607 1 0.178571 0.479167 0
1608 1 0.166667 0.486111 0
1609 1 0.190476 0.375 0
1610 1 0.202381 0.381944 0
1611 1 0.202381 0.395833 0
1612 1 0.190476 0.402778 0
1613 1 0.190476 0.416667 0
1614 1 0.202381 0.423611 0
1615 1 0.202381 0.4375 0
1616 1 0.190476 0.444444 0
1617 1 0.190476 0.458333 0
1618 1 0.202381 0.465278 0
1619 1 0.202381 0.479167 0
1620 1 0.190476 0.486111 0
2089 1 0.142857 0.5 0
2090 1 0.154762 0.506944 0
2091 1 0.154762 0.520833 0
2092 1 0.142857 0.527778 0
2093 1 0.142857 0.541667 0
2094 1 0.154762 0.548611 0
2095 1 0.154762 0.5625 0
2096 1 0.142857 0.569444 0
2097 1 0.142857 0.583333 0
2098 1 0.154762 0.590278 0
2099 1 0.154762 0.604167 0
2100 1 0.142857 0.611111 0
2101 1 0.166667 0.5 0
2102 1 0.178571 0.506944 0
2103 1 0.178571 0.520833 0
2104 1 0.166667 0.527778 0
2105 1 0.166667 0.541667 0
2106 1 0.178571 0.548611 0
2107 1 0.178571 0.5625 0
2108 1 0.166667 0.569444 0
2109 1 0.166667 0.583333 0
2110 1 0.178571 0.590278 0
2111 1 0.178571 0.604167 0
2112 1 0.166667 0.611111 0
2113 1 0.190476 0.5 0
2114 1 0.202381 0.506944 0
2115 1 0.202381 0.520833 0
2116 1 0.190476 0.527778 0
2117 1 0.190476 0.541667 0
2118 1 0.202381 0.548611 0
2119 1 0.202381 0.5625 0
2120 1 0.190476 0.569444 0
2121 1 0.190476 0.583333 0
2122 1 0.202381 0.590278 0
2123 1 0.202381 0.604167 0
2124 1 0.190476 0.611111 0
2593 1 0.142857 0.625 0
2594 1 0.154762 0.631944 0
2595 1 0.154762 0.645833 0
2596 1 0.142857 0.652778 0
2597 1 0.142857 0.666667 0
2598 1 0.154762 0.673611 0
2599 1 0.154762 0.6875 0
2600 1 0.142857 0.694444 0
2601 1 0.142857 0.708333 0
2602 1 0.154762 0.715278 0
2603 1 0.154762 0.729167 0
2604 1 0.142857 0.736111 0
2605 1 0.166667 0.625 0
2606 1 0.178571 0.631944 0
2607 1 0.178571 0.645833 0
2608 1 0.166667 0.652778 0
2609 1 0.166667 0.666667 0
2610 1 0.178571 0.673611 0
2611 1 0.178571 0.6875 0
2612 1 0.166667 0.694444 0
2613 1 0.166667 0.708333 0
2614 1 0.178571 0.715278 0
2615 1 0.178571 0.729167 0
2616 1 0.166667 0.736111 0
2617 1 0.190476 0.625 0
2618 1 0.202381 0.631944 0
2619 1 0.202381 0.645833 0
2620 1 0.190476 0.652778 0
2621 1 0.190476 0.666667 0
2622 1 0.202381 0.673611 0
2623 1 0.202381 0.6875 0
2624 1 0.190476 0.694444 0
2625 1 0.190476 0.708333 0
2626 1 0.202381 0.715278 0
2627 1 0.202381 0.729167 0
2628 1 0.190476 0.736111 0
3097 1 0.142857 0.75 0
3098 1 0.154762 0.756944 0
3099 1 0.154762 0.770833 0
3100 1 0.142857 0.777778 0
3101 1 0.142857 0.791667 0
3102 1 0.154762 0.798611 0
3103 1 0.154762 0.8125 0
3104 1 0.142857 0.819444 0
3105 1 0.142857 0.833333 0
3106 1 0.154762 0.840278 0
3107 1 0.154762 0.854167 0
3108 1 0.142857 0.861111 0
3109 1 0.166667 0.75 0
3110 1 0.178571 0.756944 0
3111 1 0.178571 0.770833 0
3112 1 0.166667 0.777778 0
3113 1 0.166667 0.791667 0
3114 1 0.178571 0.798611 0
3115 1 0.178571 0.8125 0
3116 1 0.166667 0.819444 0
3117 1 0.166667 0.833333 0
3118 1 0.178571 0.840278 0
3119 1 0.178571 0.854167 0
3120 1 0.166667 0.861111 0
3121 1 0.190476 0.75 0
3122 1 0.202381 0.756944 0
3123 1 0.202381 0.770833 0
3124 1 0.190476 0.777778 0
3125 1 0.190476 0.791667 0
3126 1 0.202381 0.798611 0
3127 1 0.202381 0.8125 0
3128 1 0.190476 0.819444 0
3129 1 0.190476 0.833333 0
3130 1 0.202381 0.840278 0
3131 1 0.202381 0.854167 0
3132 1 0.190476 0.861111 0
3601 1 0.142857 0.875 0
3602 1 0.154762 0.881944 0
3603 1 0.154762 0.895833 0
3604 1 0.142857 0.902778 0
3605 1 0.142857 0.916667 0
3606 1 0.154762 0.923611 0
3607 1 0.154762 0.9375 0
3608 1 0.142857 0.944444 0
3609 1 0.142857 0.958333 0
3610 1 0.154762 0.965278 0
3611 1 0.154762 0.979167 0
3612 1 0.142857 0.986111 0
3613 1 0.166667 0.875 0
3614 1 0.178571 0.881944 0
3615 1 0.178571 0.895833 0
3616 1 0.166667 0.902778 0
3617 1 0.166667 0.916667 0
3618 1 0.178571 0.923611 0
3619 1 0.178571 0.9375 0
3620 1 0.166667 0.944444 0
3621 1 0.166667 0.958333 0
3622 1 0.178571 0.965278 0
3623 1 0.178571 0.979167 0
3624 1 0.166667 0.986111 0
3625 1 0.190476 0.875 0
3626 1 0.202381 0.881944 0
3627 1 0.202381 0.895833 0
3628 1 0.190476 0.902778 0
3629 1 0.190476 0.916667 0
3630 1 0.202381 0.923611 0
3631 1 0.202381 0.9375 0
3632 1 0.190476 0.944444 0
3633 1 0.190476 0.958333 0
3634 1 0.202381 0.965278 0
3635 1 0.202381 0.979167 0
3636 1 0.190476 0.986111 0
109 1 0.214286 6.94425e-13 0
110 1 0.22619 0.00694444 0
111 1 0.22619 0.0208333 0
112 1 0.214286 0.0277778 0
113 1 0.214286 0.0416667 0
114 1 0.22619 0.0486111 0
115 1 0.22619 0.0625 0
116 1 0.214286 0.0694444 0
117 1 0.214286 0.0833333 0
118 1 0.22619 0.0902778 0
119 1 0.22619 0.104167 0
120 1 0.214286 0.111111 0
121 1 0.238095 6.94437e-13 0
122 1 0.25 0.00694444 0
123 1 0.25 0.0208333 0
124 1 0.238095 0.0277778 0
125 1 0.238095 0.0416667 0
126 1 0.25 0.0486111 0
127 1 0.25 0.0625 0
128 1 0.238095 0.0694444 0
129 1 0.238095 0.0833333 0
130 1 0.25 0.0902778 0
131 1 0.25 0.104167 0
132 1 0.238095 0.111111 0
133 1 0.261905 6.94436e-13 0
134 1 0.27381 0.00694444 0
135 1 0.27381 0.0208333 0
136 1 0.261905 0.0277778 0
137 1 0.261905 0.0416667 0
138 1 0.27381 0.0486111 0
139 1 0.27381 0.0625 0
140 1 0.261905 0.0694444 0
141 1 0.261905 0.0833333 0
142 1 0.27381 0.0902778 0
143 1 0.27381 0.104167 0
144 1 0.261905 0.111111 0
613 1 0.214286 0.125 0
614 1 0.22619 0.131944 0
615 1 0.22619 0.145833 0
616 1 0.214286 0.152778 0
617 1 0.214286 0.166667 0
618 1 0.22619 0.173611 0
619 1 0.22619 0.1875 0
620 1 0.214286 0.194444 0
621 1 0.214286 0.208333 0
622 1 0.22619 0.215278 0
623 1 0.22619 0.229167 0
624 1 0.214286 0.236111 0
625 1 0.238095 0.125 0
626 1 0.25 0.131944 0
627 1 0.25 0.145833 0
628 1 0.238095 0.152778 0
629 1 0.238095 0.166667 0
630 1 0.25 0.173611 0
631 1 0.25 0.1875 0
632 1 0.238095 0.194444 0
633 1 0.238095 0.208333 0
634 1 0.25 0.215278 0
635 1 0.25 0.229167 0
636 1 0.238095 0.236111 0
637 1 0.261905 0.125 0
638 1 0.27381 0.131944 0
639 1 0.27381 0.145833 0
640 1 0.261905 0.152778 0
641 1 0.261905 0.166667 0
642 1 0.27381 0.173611 0
643 1 0.27381 0.1875 0
644 1 0.261905 0.194444 0
645 1 0.261905 0.208333 0
646 1 0.27381 0.215278 0
647 1 0.27381 0.229167 0
648 1 0.261905 0.236111 0
1117 1 0.214286 0.25 0
1118 1 0.22619 0.256944 0
1119 1 0.22619 0.270833 0
1120 1 0.214286 0.277778 0
1121 1 0.214286 0.291667 0
1122 1 0.22619 0.298611 0
1123 1 0.22619 0.3125 0
1124 1 0.214286 0.319444 0
1125 1 0.214286 0.333333 0
1126 1 0.22619 0.340278 0
1127 1 0.22619 0.354167 0
1128 1 0.214286 0.361111 0
1129 1 0.238095 0.25 0
1130 1 0.25 0.256944 0
1131 1 0.25 0.270833 0
1132 1 0.238095 0.277778 0
1133 1 0.238095 0.291667 0
1134 1 0.25 0.298611 0
1135 1 0.25 0.3125 0
1136 1 0.238095 0.319444 0
1137 1 0.238095 0.333333 0
1138 1 0.25 0.340278 0
1139 1 0.25 0.354167 0
1140 1 0.238095 0.361111 0
1141 1 0.261905 0.25 0
1142 1 0.27381 0.256944 0
1143 1 0.27381 0.270833 0
1144 1 0.261905 0.277778 0
1145 1 0.261905 0.291667 0
1146 1 0.27381 0.298611 0
1147 1 0.27381 0.3125 0
1148 1 0.261905 0.319444 0
1149 1 0.261905 0.333333 0
1150 1 0.27381 0.340278 0
1151 1 0.27381 0.354167 0
1152 1 0.261905 0.361111 0
1621 1 0.214286 0.375 0
1622 1 0.22619 0.381944 0
1623 1 0.22619 0.395833 0
1624 1 0.214286 0.402778 0
1625 1 0.214286 0.416667 0
1626 1 0.22619 0.423611 0
1627 1 0.22619 0.4375 0
1628 1 0.214286 0.444444 0
1629 1 0.214286 0.458333 0
1630 1 0.22619 0.465278 0
1631 1 0.22619 0.479167 0
1632 1 0.214286 0.486111 0
1633 1 0.238095 0.375 0
1634 1 0.25 0.381944 0
1635 1 0.25 0.395833 0
1636 1 0.238095 0.402778 0
1637 1 0.238095 0.416667 0
1638 1 0.25 0.423611 0
1639 1 0.25 0.4375 0
1640 1 0.238095 0.444444 0
1641 1 0.238095 0.458333 0
1642 1 0.25 0.465278 0
1643 1 0.25 0.479167 0
1644 1 0.238095 0.486111 0
1645 1 0.261905 0.375 0
1646 1 0.27381 0.381944 0
1647 1 0.27381 0.395833 0
1648 1 0.261905 0.402778 0
1649 1 0.261905 0.416667 0
1650 1 0.27381 0.423611 0
1651 1 0.27381 0.4375 0
1652 1 0.261905 0.444444 0
1653 1 0.261905 0.458333 0
1654 1 0.27381 0.465278 0
1655 1 0.27381 0.479167 0
1656 1 0.261905 0.486111 0
2125 1 0.214286 0.5 0
2126 1 0.22619 0.506944 0
2127 1 0.22619 0.520833 0
2128 1 0.214286 0.527778 0
2129 1 0.214286 0.541667 0
2130 1 0.22619 0.548611 0
2131 1 0.22619 0.5625 0
2132 1 0.214286 0.569444 0
2133 1 0.214286 0.583333 0
2134 1 0.22619 0.590278 0
2135 1 0.22619 0.604167 0
2136 1 0.214286 0.611111 0
2137 1 0.238095 0.5 0
2138 1 0.25 0.506944 0
2139 1 0.25 0.520833 0
2140 1 0.238095 0.527778 0
2141 1 0.238095 0.541667 0
2142 1 0.25 0.548611 0
2143 1 0.25 0.5625 0
2144 1 0.238095 0.569444 0
2145 1 0.238095 0.583333 0
2146 1 0.25 0.590278 0
2147 1 0.25 0.604167 0
2148 1 0.238095 0.611111 0
2149 1 0.261905 0.5 0
2150 1 0.27381 0.506944 0
2151 1 0.27381 0.520833 0
2152 1 0.261905 0.527778 0
2153 1 0.261905 0.541667 0
2154 1 0.27381 0.548611 0
2155 1 0.27381 0.5625 0
2156 1 0.261905 0.569444 0
2157 1 0.261905 0.583333 0
2158 1 0.27381 0.590278 0
2159 1 0.27381 0.604167 0
2160 1 0.261905 0.611111 0
2629 1 0.214286 0.625 0
2630 1 0.22619 0.631944 0
2631 1 0.22619 0.645833 0
2632 1 0.214286 0.652778 0
2633 1 0.214286 0.666667 0
2634 1 0.22619 0.673611 0
2635 1 0.22619 0.6875 0
2636 1 0.214286 0.694444 0
2637 1 0.214286 0.708333 0
2638 1 0.22619 0.715278 0
2639 1 0.22619 0.729167 0
2640 1 0.214286 0.736111 0
2641 1 0.238095 0.625 0
2642 1 0.25 0.631944 0
2643 1 0.25 0.645833 0
2644 1 0.238095 0.652778 0
2645 1 0.238095 0.666667 0
2646 1 0.25 0.673611 0
2647 1 0.25 0.6875 0
2648 1 0.238095 0.694444 0
2649 1 0.238095 0.708333 0
2650 1 0.25 0.715278 0
2651 1 0.25 0.729167 0
2652 1 0.238095 0.736111 0
2653 1 0.261905 0.625 0
2654 1 0.27381 0.631944 0
2655 1 0.27381 0.645833 0
2656 1 0.261905 0.652778 0
2657 1 0.261905 0.666667 0
2658 1 0.27381 0.673611 0
2659 1 0.27381 0.6875 0
2660 1 0.261905 0.694444 0
2661 1 0.261905 0.708333 0
2662 1 0.27381 0.715278 0
2663 1 0.27381 0.729167 0
2664 1 0.261905 0.736111 0
3133 1 0.214286 0.75 0
3134 1 0.22619 0.756944 0
3135 1 0.22619 0.770833 0
3136 1 0.214286 0.777778 0
3137 1 0.214286 0.791667 0
3138 1 0.22619 0.798611 0
3139 1 0.22619 0.8125 0
3140 1 0.214286 0.819444 0
3141 1 0.214286 0.833333 0
3142 1 0.22619 0.840278 0
3143 1 0.22619 0.854167 0
3144 1 0.214286 0.861111 0
3145 1 0.238095 0.75 0
3146 1 0.25 0.756944 0
3147 1 0.25 0.770833 0
3148 1 0.238095 0.777778 0
3149 1 0.238095 0.791667 0
3150 1 0.25 0.798611 0
3151 1 0.25 0.8125 0
3152 1 0.238095 0.819444 0
3153 1 0.238095 0.833333 0
3154 1 0.25 0.840278 0
3155 1 0.25 0.854167 0
3156 1 0.238095 0.861111 0
3157 1 0.261905 0.75 0
3158 1 0.27381 0.756944 0
3159 1 0.27381 0.770833 0
3160 1 0.261905 0.777778 0
3161 1 0.261905 0.791667 0
3162 1 0.27381 0.798611 0
3163 1 0.27381 0.8125 0
3164 1 0.261905 0.819444 0
3165 1 0.261905 0.833333 0
3166 1 0.27381 0.840278 0
3167 1 0.27381 0.854167 0
3168 1 0.261905 0.861111 0
3637 1 0.214286 0.875 0
3638 1 0.22619 0.881944 0